formula,bandgap
H3829Pb100C200I258Br42N2171,2.59552614708e-19
Cs3Sn5H337Pb5C10I30N10,2.0507860915199998e-19
H381Pb10C20I29Br1N219,2.43530848368e-19
H6Pb1C1I3N1,2.4112758341699996e-19
Cs5Sn42H3816Pb58C200I248Br52N2179,2.2110037549199997e-19
H3883Pb100C200I50Br250N2117,3.449486293002e-19
H6Pb1C1I3N1,2.544256494792e-19
Cs1Pb1I2Br1,3.15628796898e-19
Cs3H50Pb10C10Br30N207,3.6641779619579994e-19
H6Pb1C1I1Br2N1,3.23639680068e-19
Cs99H24Pb100C16I301N2,2.77176557682e-19
Sn6H384Pb4C20I27Br3N216,2.2430472876e-19
Cs22K3Pb25Br75,3.6048974264999996e-19
H41Pb1C4I4N1,3.7170497908799996e-19
Sn4H155C8I12N85,2.13089492322e-19
H3833Pb100C200I50Br250N2167,3.38860358091e-19
Cs39H24Pb40C16I121N2,2.73972204414e-19
Cs1H5Pb1C1I3N2,2.41928671734e-19
H6Pb1C1I2Br1N1,2.73972204414e-19
H159Pb4C12I13N6,2.85187440852e-19
H30Pb5C5Br3N5Cl12,4.53415987422e-19
K2H763Pb20C40I51Br11N435,2.54746084806e-19
H6Pb1C1I3N1,2.5746978508379996e-19
Sn1H10Pb1C2I2N4,1.9546554934799998e-19
Cs16H3804Pb100C200I117Br183N2180,3.0601573709399997e-19
H389Pb10C20I29Br3N211,2.550665201328e-19
Cs50H625Pb125C125I93Br32N2575,2.6435914460999996e-19
Cs34Sn1H1000Pb199C200I600N4166,2.43530848368e-19
H120Pb20C20I57Br3N20,2.5154173153799998e-19
Cs5H100Pb20C20I54Br6N415,2.5154173153799998e-19
Sn7H120Pb13C20I60N20,2.0027207925e-19
Cs17H500Pb100C100I225Br75N2083,2.8038091095e-19
Cs1H50Pb10C10I30N209,2.38724318466e-19
Cs1H50Pb10C10I30N209,2.4176845407059997e-19
H38024Pb1000C2000I2925Br75N21976,2.46735201636e-19
Cs47Rb3Pb50Br150,3.6048974264999996e-19
Cs1H339Pb10C10I18Br12N10,2.91596147388e-19
Cs17Sn40H500Pb60C100I300N2083,2.03476432518e-19
H20Pb1C14I4N2,3.49274506212e-19
Cs4H3816Pb100C200I251Br49N2180,2.57950438074e-19
H77Pb4C5I13N2,3.1082226699599995e-19
Cs17H500Pb100C100I249Br51N2083,2.6115479134199995e-19
H6Pb1C1I3N1,2.560278261132e-19
H6Pb1C1I1Br2N1,3.3485491650599994e-19
H6Pb1C1N1Cl3,4.87061696736e-19
H774Pb20C40I57Br3N426,2.5634826144e-19
Cs1Pb1I2Br1,2.94800500656e-19
H777Pb20C40I60N423,2.1629384559e-19
Sn1H13C3I3N41,2.19498198858e-19
H5Pb1C1I1Br2N2,3.154685792346e-19
H194Pb5C10I15N106,2.53143908172e-19
H79Pb4C6I13N2,2.6115479134199995e-19
H3883Pb100C200I200Br100N2117,2.826239582376e-19
H6Pb1C4S3I1N6,2.2911125866199997e-19
Sn3Sb7H180C5I45N5,2.8038091095e-19
H6Pb1C1Br3N1,3.4767232957799997e-19
H389Pb10C20I29Br3N211,2.53143908172e-19
H5Pb1C1I3N2,2.62756967976e-19
H500Pb100C100Br267N200Cl33,3.6850062581999995e-19
Cs1Sn2H20Pb2C4I12N83,2.03476432518e-19
H7334Pb100C500I333N200,2.8999397075399998e-19
H600Pb100C100I87Br213N100,3.2572250969219995e-19
Sn1H6C1I3N1,2.1629384559e-19
Cs1H61960Pb20C20I60N20,2.57950438074e-19
Cs4H100Pb20C20I45Br15N416,2.6756349787799997e-19
Bi1H36C1I2N1,3.5247885948e-19
Sb2H36C1I9N1,3.42865799676e-19
H54Pb4C13S2I14N3,2.6435914460999996e-19
H30Pb5C5I11Br4N5,2.8038091095e-19
H69Pb1C3I3N2,2.54746084806e-19
H60Pb10C10I27Br3N10,2.59552614708e-19
Sn3H60Pb7C10I30N10,1.9226119607999997e-19
Cu1H120Pb19C20I58Br2N20,2.5634826144e-19
Cs17H500Pb100C100I300N2083,2.41928671734e-19
Cs5Ge1Pb4I10Br5,3.026511661626e-19
H7620Pb200C400I181Br19N4380,2.57950438074e-19
Cs1H679Pb20C20I60N20,2.41928671734e-19
Cs17H500Pb100C100I300N2083,2.4833737826999997e-19
Cs25Sn42H19080Pb458C1000I1240Br260N10895,2.2110037549199997e-19
Sn1H5C1I3N2,2.11487315688e-19
Cs2Sn2I1Br5,3.78113685624e-19
Cs1Pb1Br3,3.7490933235599997e-19
H6Pb1C1I3N1,2.537847788256e-19
Sn1H5C1I2Br1N2,2.4833737826999997e-19
Cs1Pb1I2Br1,3.0922009036199997e-19
H293Pb4C20I13N8,3.01209207192e-19
H10Pb2C2I3Br3N4,3.1242444363e-19
H6Pb1C1Br3N1,3.4126362304199996e-19
H24Pb4C4I9Br3N4,2.7237002777999996e-19
Cs5H3819Pb100C200I232Br57N2176,2.7076785114599998e-19
H11Pb1C2I1Br1N3,3.89328922062e-19
H1908Pb50C100I75Br25N1092,2.93198324022e-19
H24Pb4C4I9Br3N4,2.6756349787799997e-19
Sn15H960Pb10C50I63Br12N540,2.11487315688e-19
Cs5Sn50H3816Pb50C200I250Br50N2179,2.09885139054e-19
Cs1H1699Pb50C50I147Br3N50,2.5634826144e-19
Cs1H50Pb10C10I29Br1N209,2.4833737826999997e-19
Mn1H6C1I3N1,2.6435914460999996e-19
Sb2H36C1I9N1,3.7170497908799996e-19
H1908Pb50C100I125Br25N1092,2.6435914460999996e-19
Sn1H153Pb3C8I12N87,2.13089492322e-19
Sn1H6C1I3N1,2.0507860915199998e-19
H120Pb20C20I51Br9N20,2.69165674512e-19
Sn100H3995C280I276Br24N2125,2.4032649509999997e-19
H42Pb3C2I12N4,2.57950438074e-19
H600Pb100C100I266Br33N100,2.6435914460999996e-19
Cs100H38153Pb1000C2000I2490Br510N21747,2.77176557682e-19
Sn1H6C1Br3N1,3.4446797630999997e-19
Sn1H77Pb1C4I6N43,2.17896022224e-19
Cs3H100Pb20C20I51Br9N417,2.54746084806e-19
Sr1H120Pb19C20I60N20,2.6147522666879996e-19
H600Pb100C100I297Br3N100,2.5634826144e-19
H6000Pb1000C1000I2970Br33N1000,2.5634826144e-19
Cs100Pb93I300,2.8839179412e-19
H77Pb2C4I4Br2N43,2.805411286134e-19
Sn3H30Pb2C5I3Br12N5,2.11487315688e-19
Cs3H385Pb10C20I30N212,2.62756967976e-19
H763Pb20C40I51Br11N437,2.53143908172e-19
Cs17H3383Pb100C100I300N100,2.616354443322e-19
Cs170Sn1H5000Pb999C1000I3000N20830,2.4833737826999997e-19
H30Pb5C5I14Br1N5,2.62756967976e-19
Sn1H20Pb3C4I12N8,2.4032649509999997e-19
Cs17H500Pb100C100I200Br100N2083,2.54746084806e-19
Cs4H50Pb10C10I21Br9N206,2.81983087584e-19
Cs5Ba1Pb4I10Br5,2.9880594224099996e-19
Cs17H500Pb100C100I120Br180N2083,3.0922009036199997e-19
Cs1Sn5H339Pb5C10I30N10,2.0828296242e-19
Cs10Ge3Pb7I20Br10,3.0136942485539996e-19
Cs1H100Pb20C20I60N419,2.43530848368e-19
Cs1H5Pb1C1I1Br1N2Cl1,2.8038091095e-19
H777Pb20C40I60N423,2.6115479134199995e-19
H194Pb5C10I15N106,2.5634826144e-19
Cs1H25Pb5C5I12Br3N104,2.3712214183199996e-19
Cs20H3805Pb100C200I249Br51N2175,2.6115479134199995e-19
Cs5H3814Pb100C200I255Br45N2181,2.582708734008e-19
Cs25H1250Pb250C250I186Br64N5225,2.7557438104799996e-19
Cs50H98227Pb1000C3000I2490Br510N51853,2.58751526391e-19
Sn1H10Pb1C2I6N4,1.9546554934799998e-19
Cs17H500Pb100C100I249Br51N2083,2.62756967976e-19
H12Pb2C2I3Br3N2,2.93198324022e-19
H60Pb10C10I29Br1N10,2.54746084806e-19
Cs500Sn1251H10000Pb740C2000I6000N41500,1.98669902616e-19
H60Pb10C10I27Br3N10,2.585913087276e-19
Cs2H763Pb20C40I51Br9N437,2.5811065573739997e-19
Sn1H20Pb3C4I12N8,2.19498198858e-19
Sb1H300Pb49C50I150N50,2.4032649509999997e-19
H6Pb1C1I3N1,2.5490630246939996e-19
H120Pb20C20I57Br3N20,2.6115479134199995e-19
Sn19H600C100I300N100,2.09885139054e-19
Cs6H3815Pb100C200I255Br45N2179,2.57950438074e-19
Cs5H25Pb5C5I14Br1N10,2.77176557682e-19
Sn4H30Pb1C5I13Br2N5,2.01874255884e-19
H6Pb1C1I3N1,3.3645709313999997e-19
Ag2Bi1I5,2.98004853924e-19
H6Pb1C1I3N1,2.2430472876e-19
H600Pb100C100I213Br87N100,2.7557438104799996e-19
H62Pb6C17I19N3,2.5634826144e-19
H3883Pb100C200I100Br200N2117,3.1867293250259997e-19
Sn1H5C1I3N2,2.14691668956e-19
H600Pb100C100I289Br11N100,2.53944996489e-19
Cs1H25Pb5C5I15N104,2.41928671734e-19
H30Pb5C5I12Br3N5,2.73972204414e-19
H194Pb5C10I15N106,2.4032649509999997e-19
H3883Pb100C200Br300N2117,3.6785975516639994e-19
Cs97Rb3Pb100Br300,3.6369409591799997e-19
H6Pb1C1Br3N1,3.39661446408e-19
Cs1Pb1I3,2.81983087584e-19
Cs17H500Pb100C100I150Br150N2083,2.8839179412e-19
H6Pb1C1I3N1,2.505804255576e-19
Cs23K2Pb25Br75,3.6369409591799997e-19
Sn1H389Pb9C20I30N211,2.30713435296e-19
H6Pb1C1I1Br2N1,2.9640267729e-19
H12Pb2C2I5Br1N2,2.653204505904e-19
Cs1H50Pb10C10I24Br6N209,2.57950438074e-19
H49Pb3C7I10N3,3.18833150166e-19
H351Pb10C18I30N11,2.5634826144e-19
Sn1H6C1I1Br2N1,3.4126362304199996e-19
Cs17Sn5H500Pb95C100I300N2083,2.43530848368e-19
H300Pb50C50I93Br57N50,2.8470678786179995e-19
Co1H750Pb124C125I375N125,2.49939554904e-19
Cs1Pb1I1Br2,3.0441356046e-19
H191Pb5C10I15N109,2.4593411331899995e-19
Cs50H98193Pb1000C3000I2490Br510N51820,2.57149349757e-19
H5Pb1C1I3N2,2.441717190216e-19
Cs5H3816Pb100C200I300N2179,2.4833737826999997e-19
Cs1Pb1Br3,3.6529627255199995e-19
H6Pb1C1I2Br1N1,2.8038091095e-19
H5Pb1C1Br2N2Cl1,3.97339805232e-19
Cs20Sn51H6780Pb140C200I600N200,2.2270255212599995e-19
H6Pb1C1I3N1,2.50740643221e-19
H364Pb40C23I121N3,2.57950438074e-19
Cs50H3810Pb100C200I249Br51N2175,2.6115479134199995e-19
Cs10H3807Pb100C200I249Br51N2183,2.6115479134199995e-19
H311Pb8C16I24N169,2.4833737826999997e-19
H326Pb25C159I75N525,2.62756967976e-19
Sn5H40Pb3C8I24N16,1.9386337271399998e-19
H240Pb40C40I111Br9N40,2.5634826144e-19
Sn1H24Pb3C4I12N4,2.2110037549199997e-19
Sn3H20Pb1C4I12N8,2.01874255884e-19
H220Pb20C40I51Br9N60,3.5728538938199995e-19
H240Pb40C40I117Br3N40,2.59552614708e-19
Cs3H220Pb20C40I51Br9N1017,2.6035370302499996e-19
H30Pb5C5I14Br1N5,2.558676084498e-19
Cs60H1000Pb200C200I181Br19N4140,2.6115479134199995e-19
Cs5H3816Pb100C200I249Br51N2179,2.584310910642e-19
H30Pb5C5I6Br9N5,3.0761791372799995e-19
Cs3H50Pb10C10I30N207,2.53143908172e-19
Cs25Pb25I43Br25F7,2.9640267729e-19
H78Pb5C5I16N2,2.6724306255119996e-19
Cs1H20Pb4C4I12N83,2.46735201636e-19
H60Pb10C10I23Br7N10,2.69165674512e-19
Sn3H76C5I10N2,2.62756967976e-19
Cs5H100Pb20C20I48Br12N415,2.7237002777999996e-19
Cs2H192Pb5C10I15N106,2.62756967976e-19
H381Pb10C20I29Br1N219,2.53143908172e-19
H30Pb5C5I12Br3N5,2.7237002777999996e-19
Sn3H40Pb5C8I24N16,1.98669902616e-19
Cs22Na3Pb25Br75,3.5888756601600003e-19
Cs3H100Pb20C20I54Br6N417,2.4833737826999997e-19
Cs10Ba1Pb9I30,2.7557438104799996e-19
H763Pb20C40I48Br12N437,2.589117440544e-19
Sn1H154Pb3C8I12N86,2.13089492322e-19
Cs3H500Pb100C100I300N2097,2.4881803126019995e-19
Cs1Sn2H20Pb2C4I12N83,1.9226119607999997e-19
Cs1H339Pb10C10I30N10,2.46735201636e-19
Sn1H60Pb9C10I30N10,2.43530848368e-19
H120Pb20C20I51Br9N20,2.5634826144e-19
Cs10H3824Pb100C200I249Br51N2175,2.57950438074e-19
Cs100H76323Pb2000C4000I5400Br600N43577,2.53143908172e-19
H30Pb5C5I12Br3N5,2.59552614708e-19
Cs6H3815Pb100C200I255Br45N28000,2.62756967976e-19
Cs3H50Pb10C10I30N207,2.38724318466e-19
H3817Pb100C200I150Br150N2183,2.989661599044e-19
Cs91Rb9Pb100Br300,3.5888756601600003e-19
H77Pb2C4I6N43,2.452932426654e-19
Cs5H3814Pb100C200I255Br45N2181,2.6435914460999996e-19
Sn6H384Pb4C20I27Br3N216,2.17896022224e-19
Cs50La1Pb49I100Br50,3.0745769606459997e-19
Ag3Bi80I230,2.98004853924e-19
H42Pb3C2I12N4,2.93198324022e-19
H600Pb100C100I261Br39N100,2.629171856394e-19
Ag38Bi750I2375,2.98004853924e-19
Cs17Sn30H500Pb70C100I300N2083,2.0828296242e-19
Cs4H166Pb5C5I15N5,2.7557438104799996e-19
Sn3H30Pb2C5I6Br9N5,2.0668078578599998e-19
Cs50Pb49I150,2.73972204414e-19
Cs1Sn5H25C5I15N104,1.9226119607999997e-19
Cs5H3816Pb100C200I249Br51N2179,2.616354443322e-19
H6000Pb1000C1000I2920Br83N1000,2.57950438074e-19
Cs5H3816Pb100C200I249Br51N2179,2.600332676982e-19
Cs1H41Pb2C4I7N1,3.5247885948e-19
Cs100Mg3Pb97Br300,3.6689844918599997e-19
H79Pb10C3I31N2,2.54746084806e-19
Al1H6C1N1Cl4,4.4860945752e-19
Cs1Sn1I1Br2,2.6435914460999996e-19
Sn5H30C5I5Br9N5Cl1,2.99607030558e-19
Cs24Li1Pb25Br75,3.6369409591799997e-19
Sn6H60Pb4C10I9Br21N10,2.0828296242e-19
Cs10H120Pb20C80I49Br21N20,3.23639680068e-19
H387Pb10C20I27Br3N213,2.6115479134199995e-19
H3433Pb100C124I300N103,2.5634826144e-19
H767Pb20C40I60N433,2.43530848368e-19
Cs9H100Pb20C20I57Br3N411,2.59552614708e-19
Cs133H38133Pb1000C2000I744Br256N21733,2.73972204414e-19
Cs5H3857Pb100C200I280Br20N2138,2.5154173153799998e-19
H77Pb2C4Br6N43,3.6529627255199995e-19
Cs3H337Pb10C10I30N10,2.53143908172e-19
Cs17H500Pb100C100I180Br120N2083,2.7877873431599997e-19
Sn5H120Pb15C20I54Br6N20,2.2911125866199997e-19
Cs50H500Pb100C100I249Br51N2050,2.59552614708e-19
Sr1H60Pb9C10I30N10,2.6115479134199995e-19
H4137Pb100C636I300N167,2.5634826144e-19
H45Pb3C17I10N3,2.99607030558e-19
Sn1H12Pb1C2I6N2,1.9706772598199998e-19
H12Pb2C2I5Br1N2,2.7237002777999996e-19
Sn1H77Pb1C4I6N43,2.03476432518e-19
H6Pb1C1I3N1,2.534643434988e-19
Sn1H50Pb9C10I30N20,2.2911125866199997e-19
Cs1Pb1Br3,3.6689844918599997e-19
Sn7H40Pb1C8I24N16,2.0027207925e-19
H311Pb8C16I16Br8N169,2.73972204414e-19
Bi2H36C1I9N1,3.3645709313999997e-19
Cs133H38133Pb1000C2000I905Br95N21733,2.6435914460999996e-19
H30Pb1C17I3N3,2.57950438074e-19
Cs25Pb25I7Br25F43,2.9640267729e-19
H954Pb25C50I65Br10N546,2.45133025002e-19
Sn1H6C1N1Cl3,3.49274506212e-19
Cs1H763Pb20C40I57Br3N436,2.590719617178e-19
H6Pb1C1Br3N1,3.3645709313999997e-19
Cs1H100Pb20C20I57Br3N419,2.3712214183199996e-19
Cs40H1000Pb200C200I181Br19N4160,2.6435914460999996e-19
Sn3H25Pb2C5I15N10,2.0668078578599998e-19
H150Pb25C25I66Br9N25,2.59552614708e-19
H41Pb2C7I7N2,3.1723097353199997e-19
Sn3H24Pb1C4I12N4,1.89056842812e-19
Cs1Pb1I3,3.2844620996999993e-19
Cs25Sn126H19080Pb374C1000I1240Br260N10895,2.2110037549199997e-19
H11Pb1C2I1Br1N3,3.50876682846e-19
H5Pb1C1Br1N2,3.5728538938199995e-19
Sn1H6C1N1Cl3,4.005441585e-19
H120Pb20C20I51Br9N20,2.6435914460999996e-19
H6Pb1C1I1Br2N1,3.1082226699599995e-19
H387Pb10C20I9Br21N213,3.2524185670199997e-19
Cs200Zn1Pb199Br600,3.6048974264999996e-19
Bi1H16C6I5N2,3.204353268e-19
Cs17H1100Pb100C200I51Br259N2183,2.62756967976e-19
Ag3Bi1I6,2.98004853924e-19
H300Pb50C50I149Br1N50,2.5634826144e-19
H3817Pb100C200I180Br120N2183,2.7557438104799996e-19
Sn1H135C4I12N4,2.2110037549199997e-19
H159Pb4C12I13N6,2.7877873431599997e-19
Sr1H30Pb4C5I15N5,2.6083435601519995e-19
H6Pb1C1I3N1,2.5554717312299997e-19
Sb1H6C5I4N2,3.5247885948e-19
Sn1H30Pb4C5I15N5,2.4032649509999997e-19
H77Pb4C5I13N2,3.0377268980639998e-19
Sn1H6C1I2Br1N1,2.3391778856399996e-19
H150Pb25C25I72Br3N25,2.5634826144e-19
Cs1H5Pb1C1I1Br1N2Cl1,2.8839179412e-19
Cs50H98259Pb1000C3000I2490Br510N51885,2.6115479134199995e-19
Sn7H60Pb3C10I30N10,1.8745466617799998e-19
H10Pb1C3I4N2,2.09885139054e-19
H774Pb20C40I51Br9N426,2.65961321244e-19
Cs3Sb2I9,3.6850062581999995e-19
H60Pb10C10I27Br3N10,2.6980654516559996e-19
H9525Pb250C500I186Br64N5475,2.7237002777999996e-19
Sn30H1920Pb20C100I141Br9N1080,2.0379686784479998e-19
H300Pb50C50I141Br9N50,2.5698913209359997e-19
Cs9H1894Pb400C240I1054Br186N1217F240,2.786185166526e-19
Sn2H12C2I2Br3N2Cl1,3.15628796898e-19
H78Pb5C5I16N2,2.6435914460999996e-19
H193Pb5C10I15N107,2.5634826144e-19
Cs17Sn20H500Pb80C100I300N2083,2.17896022224e-19
H240Pb40C40I118Br3N40,2.5634826144e-19
H50Pb10C10Br21N20Cl9,3.9093109869599996e-19
H6Pb1C1Br3N1,3.648156195618e-19
Cs1Sn1Br3,2.8678961748599997e-19
H6Pb1C1I3N1,2.521826021916e-19
H30Pb5C5I14Br1N5,2.585913087276e-19
Cs100Pb100I279Br21,2.8999397075399998e-19
Cs5Sn84H3816Pb84C200I248Br52N2179,2.2110037549199997e-19
H60Pb10C10I21Br9N10,2.62756967976e-19
Sn2H10C2I5Br1N4,2.45133025002e-19
Cs5Sn25H3826Pb75C200I260Br40N2168,2.17896022224e-19
H3817Pb100C200I250Br50N2183,2.584310910642e-19
Cs8H100Pb20C20I39Br21N412,2.8839179412e-19
Cs3H764Pb20C40I48Br12N433,2.69165674512e-19
Cs25Bi1Pb24I75,2.49939554904e-19
Sn1H6C1Br3N1,3.49274506212e-19
H12Pb2C2I5Br1N2,2.65961321244e-19
Sn1H6C1I2Br1N1,2.49939554904e-19
Sn1H5C1I3N2,2.2911125866199997e-19
Cs1H193Pb5C10I15N106,2.62756967976e-19
Sn5H30C5I9Br6N5,2.5634826144e-19
H6Pb1C1I3N1,2.513815138746e-19
Cs5H3814Pb100C200I255Br45N2181,2.77176557682e-19
Co63H6000Pb937C1000I3000N1000,2.49939554904e-19
Cs5H3816Pb100C200I249Br51N2179,2.593923970446e-19
Cs10Sn9Pb1I30,1.9546554934799998e-19
Sn1H120Pb19C20I60N20,2.4032649509999997e-19
Cu1H120Pb19C20I58Br2N20,2.4833737826999997e-19
H191Pb5C10I15N109,2.1629384559e-19
Cs25H9575Pb250C500I186Br64N5400,2.7237002777999996e-19
Cs4H7720Pb200C400I595Br5N4276,2.5634826144e-19
H30Pb5C5I9Br6N5,2.91596147388e-19
H6Pb1C1N1Cl3,4.4860945752e-19
Cs1Sn10H339C10I30N10,1.9226119607999997e-19
H24Pb1C16I4N2,2.5634826144e-19
H3817Pb100C200I251Br49N2183,2.6115479134199995e-19
Cs25Sn84H19080Pb416C1000I1240Br260N10895,2.2110037549199997e-19
H77Pb2C4I6N43,2.4833737826999997e-19
H6Pb1C1I3N1,2.5202238452819996e-19
H6Pb1C1Br3N1,3.55683212748e-19
Cs1H5Pb1C1I1Br1N2Cl1,2.83585264218e-19
H687Pb20C22I60N21,2.4833737826999997e-19
Cs1H5Pb1C1I1Br1N2Cl1,2.7237002777999996e-19
H77Pb4C5I13N2,2.6435914460999996e-19
Cs5H3816Pb100C200I255Br45N2179,2.6115479134199995e-19
Sn4Sb6H30C5I45N5,2.6435914460999996e-19
Sn1H6C1I3N1,2.19498198858e-19
Cs15H3809Pb100C200I297Br3N2176,2.561880437766e-19
Cs1H5Pb1C1I1Br1N2Cl1,2.7557438104799996e-19
H5Pb1C1I3N2,3.8452239215999995e-19
Cs1H50Pb10C10Br30N209,3.648156195618e-19
H12Pb2C2I5Br1N2,2.62756967976e-19
Sb1H60Pb9C10I30N10,2.6756349787799997e-19
Cs50Pb50I89Br50F11,2.9640267729e-19
H6Pb1C1I3N1,2.6788393320479997e-19
H12Pb1C8I4N2,3.79715862258e-19
Co2H750Pb123C125I375N125,2.49939554904e-19
Sn1H5C1I2Br1N2,2.7237002777999996e-19
H900Pb25C25I67Br8N25,2.62756967976e-19
Bi1H5Pb1C1I3N2,2.5634826144e-19
H100Pb20C20I57Br3N40,2.59552614708e-19
Sn50H300C50I129Br21N50,2.2430472876e-19
H30Pb5C5I9Br6N5,2.8839179412e-19
Sn25H150C25I9Br66N25,2.93198324022e-19
H12Pb2C2I3Br3N2,2.6756349787799997e-19
Cs22Rb3Pb25Br75,3.5888756601600003e-19
H120Pb20C20I3Br57N20,3.5728538938199995e-19
H625Pb125C125I93Br32N250,2.7237002777999996e-19
H388Pb20C27I65N11F3,2.62756967976e-19
H17Pb23C9I7N24,2.45133025002e-19
H1928Pb100C127I325N51F3,2.65961321244e-19
Cs100Sr3Pb97Br300,3.6369409591799997e-19
H240Pb40C40I111Br9N40,2.62756967976e-19
H6Pb1C1I3N1,4.4860945752e-19
H500Pb100C100I100Br200N2033,3.1626966755159995e-19
H12Pb1C8I4N2,2.45133025002e-19
H349Pb10C14I30N11Cl2,2.59552614708e-19
H359Pb20C3I61N2,2.53143908172e-19
Cs10Ba1Pb9I20Br10,3.032920368162e-19
H12Pb2C2I3Br3N2,2.99607030558e-19
Sn5H120Pb15C20I42Br18N20,2.45133025002e-19
Cs5H3816Pb100C200I249Br51N2179,2.94800500656e-19
Sn9H29C17I28N30,2.2590690539399996e-19
H60Pb10C10I27Br3N10,2.6115479134199995e-19
H3833Pb100C200I300N2167,2.448125896752e-19
Cs25H19081Pb500C1000I1245Br255N10894,2.54746084806e-19
Cs1H387Pb10C20I30N212,2.59552614708e-19
Cs7H3814Pb100C200I255Br45N2179,2.4032649509999997e-19
Cs39H2074Pb1600C240I4114Br726N9407F240,2.670828448878e-19
H77Pb2C4I6N43,2.476965076164e-19
Cs100H38153Pb1000C2000I2490Br510N21740,2.57950438074e-19
H16Pb1C4I4N2,3.82920215526e-19
Sn15H120Pb5C20I36Br24N20,2.14691668956e-19
H11Pb1C2I1Br1N3,2.46735201636e-19
H193Pb5C10I14Br1N107,2.49939554904e-19
Cs1H20Pb4C4I12N83,2.5154173153799998e-19
Sn1H48Pb7C8I24N8,2.27509082028e-19
Cs2Sn5H678Pb15C20I60N20,2.2270255212599995e-19
H60Pb10C10I13Br17N10,3.1082226699599995e-19
Cs10H50Pb10C10I27Br3N20,2.49939554904e-19
Cs79H24Pb80C16I241N2,2.77176557682e-19
H500Pb100C100I250Br50N2033,2.677237155414e-19
H6Pb1C1I2Br1N1,2.7237002777999996e-19
H5Pb1C1Br3N2,3.641747489082e-19
Cs5H3816Pb100C200I250Br50N2179,2.4913846658699996e-19
H951Pb25C50I72Br3N549,2.3712214183199996e-19
Cs100H19168Pb500C1000I975Br525N10832,2.83585264218e-19
Cs1H3399Pb100C100I297Br3N100,2.5634826144e-19
Cs5H3810Pb100C200I297Br3N2185,2.560278261132e-19
Sb3H600Pb97C100I300N100,2.53143908172e-19
H21Pb1C7I3N2,2.5634826144e-19
H10Pb2C2I5Br1N4,3.14827708581e-19
Cs1Pb1I1Br2,3.0281138382599996e-19
Cs2Pb1C2S2I1N2,2.69165674512e-19
Cs1H5Pb1C1I1Br1N2,2.7076785114599998e-19
H6Pb1C1I3N1,2.529836905086e-19
Sn1H20Pb3C4I12N8,2.2270255212599995e-19
H120Pb20C20I57Br3N20,2.54746084806e-19
Cs2Sn2I5Br1,2.20299287175e-19
Sn5H120Pb15C20I18Br42N20,2.8839179412e-19
Sn15H960Pb10C50I72Br3N540,2.01874255884e-19
Cs1Sn1I1Br2,2.6115479134199995e-19
H600Pb93C100I300N100,2.30713435296e-19
Cs6H3815Pb100C200I120Br180N2179,2.85187440852e-19
Cs97Na3Pb100Br300,3.6689844918599997e-19
H30Pb5C5I13Br2N5,2.797400402964e-19
H3833Pb100C200I200Br100N2167,2.6948610983879995e-19
Cs17H500Pb100C100I150Br150N2083,2.93198324022e-19
H293Pb4C20I13N8,2.8999397075399998e-19
H62Pb6C17I19N3,2.4833737826999997e-19
H389Pb10C20I30N211,2.5634826144e-19
Sn19Ge1H765C40I60N435,2.2430472876e-19
Cs2Sn5H50Pb5C10I30N208,2.0828296242e-19
Sn4H30Pb1C5I15N5,1.904988017826e-19
Cs17H500Pb100C100I180Br120N2083,2.7477329273099997e-19
H1908Pb50C100I75Br25N1092,2.94800500656e-19
H3825Pb100C200I249Br51N2175,2.6435914460999996e-19
H11Pb1C2I3N3,2.4032649509999997e-19
H389Pb10C20I30N211,2.54746084806e-19
H77Pb2C4I5Br1N43,2.582708734008e-19
H6Pb1C1I3N1,2.561880437766e-19
H120Pb20C20I57Br3N20,2.6435914460999996e-19
Cs5H3817Pb100C200I300N2183,2.49939554904e-19
Sn3H60Pb7C10I30N10,2.19498198858e-19
Cs3H100Pb20C20I57Br3N417,2.59552614708e-19
Cs1Pb199Br600,3.6689844918599997e-19
H1521Pb40C80I120N879,2.3712214183199996e-19
Sn1H6C1Br3N1,3.33252739872e-19
Sn1H6C1I1Br2N1,2.8999397075399998e-19
H300Pb50C50I63Br87N50,3.0825878438159996e-19
Cs20H7660Pb200C400I181Br19N4320,2.62756967976e-19
H6Pb1C1I3N1,2.7044741581919997e-19
K1H763Pb20C40I51Br11N436,2.54746084806e-19
H6Pb1C1I3N1,2.6211609732239997e-19
H16Pb1C6I4N2,3.9093109869599996e-19
Cs7H6504Pb100C200I300N5091,2.45133025002e-19
H6Pb1C1I2N1Cl1,4.3258769118e-19
Sb2H36C1I9N1,3.2844620996999993e-19
H194Pb5C10I15N106,2.5154173153799998e-19