formula,bandgap
Cs1Sn2H20Pb2C4I12N83,1.98669902616e-19
Cs1Pb1I1Br2,3.33252739872e-19
H5Pb1C1I1Br3N2,2.35519965198e-19
H5Pb1C1Br3N2,3.6209191928399994e-19
Cs5H3814Pb100C200I255Br45N2181,2.49939554904e-19
H192Pb5C10I15N108,2.46735201636e-19
H6Pb1C1I3N1,2.6756349787799997e-19
Cs2Sn10H763Pb10C40I50Br10N435,2.09885139054e-19
H30Pb5C5I12Br3N5,2.7557438104799996e-19
Cs1H5Pb1C1I1Br3N2,2.5634826144e-19
Sn1H24Pb3C4I12N4,2.4833737826999997e-19
H6Pb1C1I3N1,2.605139206884e-19
Cs2H763Pb20C40I51Br9N435,2.6115479134199995e-19
Cs17Sn50H500Pb50C100I300N2083,2.01874255884e-19
H3817Pb100C200I250Br50N2183,2.6067413835179997e-19
Cs1H763Pb20C40I57Br3N436,2.6067413835179997e-19
Cs5Ba1Pb4I10Br5,2.989661599044e-19
Cs2H125Pb25C25I75N523,2.41928671734e-19
Cs10H3809Pb100C200I297Br3N2181,2.5634826144e-19
Sn1H5C1I3N2,1.9226119607999997e-19
Cs6H3815Pb100C200I255Br45N2179,2.49939554904e-19
Cs3H100Pb20C20I60N417,2.46735201636e-19
Sn2Sb8H30C5I45N5,2.9640267729e-19
Sn7H48Pb1C8I24N8,1.89056842812e-19
Cs6H100Pb20C20I57Br3N414,2.59552614708e-19
H389Pb10C20I30N211,2.448125896752e-19
H192Pb5C10I15N108,2.4833737826999997e-19
H59Pb4C17I13N3F2,2.5634826144e-19
H389Pb10C20I30N211,2.513815138746e-19
H6Pb1C1I1Br1N1,2.553869554596e-19
Cs5H3816Pb100C200I252Br48N2179,2.6115479134199995e-19
Cs20H15257Pb400C800I1020Br180N8723,2.6243653264919997e-19
H689Pb20C24I60N21Cl2,2.57950438074e-19
Cs32H6520Pb100C200I219Br81N5068,2.8038091095e-19
Cs3H677Pb20C20I36Br24N20,2.91596147388e-19
Cs1Pb1I2Br1,2.91596147388e-19
Cs1H50Pb10C10I30N209,2.4833737826999997e-19
Cs1Rb1H1530Pb40C80I120N868,2.41928671734e-19
H77Pb4C5I13N2,3.8452239215999995e-19
Cs2H7720Pb200C400I595Br5N4278,2.5634826144e-19
Cs3H3820Pb100C200I254Br46N2177,2.4032649509999997e-19
H9575Pb250C500I186Br64N5425,2.73972204414e-19
Cs1H40Pb8C8I21Br3N167,2.5634826144e-19
Sn31H300Pb19C50I150N50,1.9546554934799998e-19
Cs1H763Pb20C40I51Br9N436,2.54746084806e-19
Sn1H10Pb1C2I6N4,1.8745466617799998e-19
H193Pb5C10I14Br1N107,2.53143908172e-19
Cs5Pb5I1Br14,3.7651150899e-19
H6Pb1C1I3N3,4.03748511768e-19
Cs1Bi3I10,2.81983087584e-19
H5Pb1C1I3N2,2.5634826144e-19
H6Pb1C1I3N1,2.480169429432e-19
Cs5H3816Pb100C200I300N2179,2.46735201636e-19
Sn1H6C1N1Cl3,3.3645709313999997e-19
Cs10Zn1Pb9I10Br20,3.01209207192e-19
Cs1H10Pb2C2I6N41,2.62756967976e-19
Cs3H677Pb20C20I51Br9N20,2.73972204414e-19
Cs20Pb20I57Br3,2.8678961748599997e-19
Cs5H3840Pb100C200I12Br288N2155,2.49939554904e-19
Cs200Ni1Pb199Br600,3.6529627255199995e-19
H6Pb1C1I1Br2N1,3.2844620996999993e-19
H1934Pb100C131I325N53F9,2.6435914460999996e-19
H6Pb1C1I2Br1N1,2.8999397075399998e-19
Cs2H1908Pb50C100I125Br25N1090,2.61955879659e-19
Cs10Sn25H1907Pb25C100I125Br25N1083,2.09885139054e-19
H388Pb10C20I29Br3N212,2.54746084806e-19
H30Pb5C5I12Br3N5,2.6435914460999996e-19
Sn25H125C25I69Br6N50,2.35519965198e-19
H763Pb20C40I51Br9N437,2.57950438074e-19
H691Pb20C28I60N21,2.5634826144e-19
Cs5Ba2Pb3I10Br5,2.903144060808e-19
Sn3H50Pb7C10I30N20,2.14691668956e-19
Sn3H120Pb17C20I60N20,2.19498198858e-19
Sn4H30Pb1C5I15N5,1.9546554934799998e-19
Co31H6000Pb969C1000I3000N1000,2.49939554904e-19
Cs1Pb1I3,2.6756349787799997e-19
Sn1H10Pb1C2I6N4,2.35519965198e-19
H381Pb10C20I30N219,2.4833737826999997e-19
Cs20H3808Pb100C200I297Br3N2172,2.59552614708e-19
Cs10Pb9I30,2.94800500656e-19
Cs3H3397Pb100C100I291Br9N100,2.5634826144e-19
Cs1H766Pb20C40I57Br3N433,2.4833737826999997e-19
Cs1H765Pb20C40I60N434,2.41928671734e-19
Cs25H4775Pb125C250I93Br32N2700,2.7237002777999996e-19
Sn1H10Pb1C2I6N4,2.0507860915199998e-19
Cs20H15257Pb400C800I1020Br180N8723,2.605139206884e-19
H6Pb1C1I3N1,2.372823594954e-19
H75Pb6C3I19N2,2.57950438074e-19
Sn1H12Pb1C2I6N2,2.0507860915199998e-19
H60Pb10C10I27Br3N10,2.6435914460999996e-19
Cs3H762Pb20C40I60N435,2.489782489236e-19
Cs200Cu1Pb199Br600,3.6369409591799997e-19
Cs5H3801Pb100C200I297Br3N2194,2.4833737826999997e-19
Cs1H5Pb1C1I3N2,2.4833737826999997e-19
Cs100H76323Pb2000C4000I4980Br1020N43577,2.54746084806e-19
Cs3Sn12H460Pb18C50I100N227,2.0027207925e-19
Sn1H6C1I3N1,1.9706772598199998e-19
H6Pb1C1I3N1,2.7076785114599998e-19
Cs4H763Pb20C40I51Br11N433,2.9640267729e-19
Cs3H677Pb20C20I51Br9N20,2.85187440852e-19
H5Pb1C1I3N2,2.38724318466e-19
Cs20Pb19I60,2.8038091095e-19
Cs5H3814Pb95C200I242Br43N2181,2.62756967976e-19
Sn1H24Pb3C4I12N4,2.0668078578599998e-19
H3817Pb100C200I250Br50N2183,2.57950438074e-19
Cs1H763Pb20C40I51Br9N437,2.53143908172e-19
H60Pb4C17I13N3,2.6435914460999996e-19
Cs6H1919Pb50C100I102Br48N1075,2.7557438104799996e-19
Sn5H383Pb5C20I30N217,1.9546554934799998e-19
Cs1Pb1I3,2.6115479134199995e-19
H3813Pb100C200I300N2187,2.4032649509999997e-19
Sn1H6C1I3N1,2.14691668956e-19
H3817Pb100C200I150Br150N2183,2.94800500656e-19
Sn100H3995C280I276Br24N2125,2.0668078578599998e-19
H389Pb10C20I30N211,2.5234281985499997e-19
H60Pb4C17I13N3,2.7557438104799996e-19
H5Pb1C1I3N2,2.4401150135819996e-19
Cs5H962Pb25C50I70Br5N533,2.5746978508379996e-19
H3817Pb100C200I267Br33N2183,2.54746084806e-19
H6Pb1C1I3N1,2.5698913209359997e-19
H76Pb3C5I10N2,3.0281138382599996e-19
Cs5H3814Pb100C200I258Br42N2181,2.57950438074e-19
H30Pb2C17I4N3,2.54746084806e-19
Cs20H60Pb25C40I56Br24N10,3.0441356046e-19
Cs1H193Pb5C10I15N106,2.6115479134199995e-19
H3819Pb100C200I246Br54N2181,2.59552614708e-19
Cs5H3814Pb100C200I255Br45N2181,2.59552614708e-19
Cs10Pb10I1Br29,3.8131803889199994e-19
H150Pb25C25I73Br2N25,2.5634826144e-19
Cs5H3816Pb100C200I270Br30N2179,2.5154173153799998e-19
Cs5H1927Pb50C100I140Br10N1068,2.54746084806e-19
H193Pb5C10I12Br3N107,2.69165674512e-19
H77Pb2C4I3Br3N43,2.9560158897299995e-19
Cs4Sn15H100Pb5C20I60N416,1.9226119607999997e-19
Cs25Pb25I47Br25F3,2.9640267729e-19
Cs14H3803Pb100C200I249Br51N2183,2.6115479134199995e-19
Cs10H3814Pb100C200I249Br51N2176,2.57950438074e-19
H5Pb1C1I3N2,2.46735201636e-19
Sn51H1200Pb140C200I600N200,2.0828296242e-19
Cs14H7623Pb200C400I510Br90N4357,2.53143908172e-19
Cs91Rb9Pb100Br300,3.70102802454e-19
H6Pb1C1I2Br1N1,2.8839179412e-19
Cs1H25Pb5C5I9Br6N104,2.83585264218e-19
Cs1H169Pb5C5I15N5,2.5154173153799998e-19
Sn4H153C8I12N87,2.2430472876e-19
Cs5H3816Pb100C200I249Br251N2179,2.62756967976e-19
Sn3H120Pb17C20I60N20,2.0507860915199998e-19
Cs17Sn10H500Pb90C100I300N2083,2.35519965198e-19
H191Pb5C10I12Br3N109,2.4032649509999997e-19
H383Pb10C20I21Br9N217,2.73972204414e-19
Cs21K4Pb25Br75,3.5888756601600003e-19
H150Pb25C25I21Br54N25,3.2203750343399996e-19
Cs1H763Pb20C40I51Br9N437,2.5634826144e-19
H60Pb10C10I29Br1N10,2.5234281985499997e-19
Cs5H3816Pb100C200I255Br45N2179,2.53143908172e-19
H500Pb100C100I200Br100N2033,2.8150243459379995e-19
Cs3Sb2I9,3.89328922062e-19
Cs32H1100Pb100C200I219Br81N5068,2.8038091095e-19
Cs1Pb1Br3,3.7651150899e-19
H3817Pb100C200Br300N2183,3.649758372252e-19
Cs1H5Pb1C1I1Br1N2,2.59552614708e-19
H5Pb1C1I3N2,2.54746084806e-19
H61Pb4C17I13N3,2.5634826144e-19
Sn5H120Pb15C20I24Br36N20,2.77176557682e-19
Cs1Pb1Br3,3.70102802454e-19
H763Pb20C40I51Br9N437,2.43530848368e-19
Sn2H30Pb3C5I15N5,2.2270255212599995e-19
Cs3Bi2I9,3.5247885948e-19
Cs11H3389Pb100C100I300N100,2.59552614708e-19
Cs39H24Pb40C16I121N2,2.77176557682e-19
Cs17H500Pb100C100I220Br80N2083,2.7557438104799996e-19
H6Pb1C1I3N1,2.5170194920139995e-19
Cs17H500Pb100C100I225Br75N2083,2.69165674512e-19
Cs1H339Pb10C10I30N10,2.57950438074e-19
Cs5Sn75H3816Pb25C200I250Br50N2179,2.0828296242e-19
H3817Pb100C200I249Br51N2183,3.7170497908799996e-19
Sn1H13C3I3N41,2.2110037549199997e-19
H3000Pb500C500I1465Br33N500,2.57950438074e-19
Cs17Sn40H500Pb60C100I300N2083,2.0507860915199998e-19
H3856Pb100C200I267Br33N2144,2.59552614708e-19
Cs5Pb5I14Br1,2.91596147388e-19
H381Pb10C20I30N219,2.4433193668499997e-19
Sn1H5C1I3N2,2.2590690539399996e-19
Sn3H20Pb1C4I12N8,1.9386337271399998e-19
Sn2H30Pb3C5I13Br2N5,2.01874255884e-19
H359Pb10C18I30N12O4,2.46735201636e-19
Sb2H36C1I9N1,3.3645709313999997e-19
H12Pb2C2I5Br1N2,2.59552614708e-19
Sn18Ge2H765C40I60N435,2.27509082028e-19
Cs2H50Pb10C10I21Br9N208,2.8038091095e-19
Sn1H67C7I3N2,2.0828296242e-19
H600Pb100C100I267Br33N100,2.59552614708e-19
Cs2H763Pb20C40I40Br20N435,2.77176557682e-19
H384Pb60C23I181N3,2.57950438074e-19
H11Pb1C2I3N3,2.4833737826999997e-19
Cs17H3808Pb100C200I261Br39N2175,2.57950438074e-19
H6Pb1C1I3N1,2.09885139054e-19
Sn4H155C8I12N85,2.0507860915199998e-19
Sn1H6C1I3N1,1.9546554934799998e-19
H6Pb1C1I3N1,4.6463122386e-19
H193Pb5C10I15N107,2.45133025002e-19
H42Pb3C2I12N4,2.8038091095e-19
Cs5H3816Pb100C200I248Br52N2179,2.2110037549199997e-19
H6Pb1C1I2Br1N1,2.65961321244e-19
Cs75H9525Pb250C500I186Br64N5400,2.7557438104799996e-19
Cs2H1907Pb50C100I129Br21N1091,2.53143908172e-19
H389Pb10C20I30N211,2.46735201636e-19
H60Pb4C17I13N3,2.62756967976e-19
H3817Pb100C200I249Br51N2183,2.6243653264919997e-19
Sb1H120Pb19C20I60N20,2.6115479134199995e-19
H761Pb20C40I57Br3N439,2.45133025002e-19
Sn4H155C8I12N85,2.17896022224e-19
Cs75H1250Pb250C250I186Br64N5175,2.7557438104799996e-19
Cs2Sn5H50Pb5C10I30N208,2.11487315688e-19
Cs25H625Pb125C125I93Br32N2600,2.73972204414e-19
Sn5H60Pb5C10I24Br6N10,2.1629384559e-19
Cs13H3816Pb100C200I249Br51N2172,2.6115479134199995e-19
H35Pb1C6I4N1,3.79715862258e-19
Cs1Sn1I2Br1,2.19498198858e-19
Cs567H16667Pb3333C3333I10000N69433,2.4833737826999997e-19
H6Pb1C1I3N1,2.5410521415239997e-19
Cs5H3816Pb100C200I249Br51N2179,2.590719617178e-19
H24Pb4C4I11Br1N4,2.6435914460999996e-19
H30Pb5C5I12Br3N5,2.662817565708e-19
H6Pb1C1I3N1,2.492986842504e-19
H3817Pb100C200I249Br51N2183,2.6355805629299997e-19
Sn100H3995C280I276Br24N2125,2.3231561193e-19
Cs16H3804Pb100C200I129Br171N2180,3.0281138382599996e-19
Sn1H155Pb3C8I12N85,2.14691668956e-19
Cs17Sn60H500Pb40C100I300N2083,2.0027207925e-19
Cs1Sn1I3,2.03476432518e-19
Cs1Pb1I3,2.5634826144e-19
H5Pb1C1I3N2,2.4000605977319997e-19
H3817Pb100C200I250Br50N2183,2.6099457367859997e-19
Cs2Sn7H50Pb3C10I30N208,2.1629384559e-19
Sn3H383Pb7C20I30N217,2.01874255884e-19
Cs20H15257Pb400C800I1020Br180N8723,2.59552614708e-19
H120Pb20C20I57Br3N20,2.5634826144e-19
H77Pb4C5I13N2,2.622763149858e-19
Cs1Pb1Br3,2.77176557682e-19
Cs5H3814Pb100C200I255Br45N2181,2.53143908172e-19
Cs5H3816Pb100C200I249Br51N2179,2.566686967668e-19
Cs17H500Pb100C100I219Br81N2083,2.7237002777999996e-19
H952Pb25C50I69Br6N548,2.49939554904e-19
Cs5H1918Pb50C100I150N1077,2.41928671734e-19
Cs5H3814Pb100C200I260Br40N2181,2.57950438074e-19
H763Pb20C40I60N437,2.45133025002e-19
Bi1Sb4H30C25I20N10,3.39661446408e-19
H3817Pb100C200I251Br49N2183,2.5634826144e-19
H69Pb1C3Br3N2,3.8131803889199994e-19
Sn6H60Pb4C10I21Br9N10,2.0027207925e-19
H6Pb1C1I3N1,2.585913087276e-19
H3817Pb100C200I249Br51N2183,2.4833737826999997e-19
Cs1H50Pb10C10I21Br9N209,2.7237002777999996e-19
Cs17H500Pb100C100I180Br120N2083,2.8678961748599997e-19
Cs1Pb1I1Br1,2.83585264218e-19
Cu1Sn1H120Pb18C20I58Br2N20,2.4833737826999997e-19
Cs1H5Pb1C1I3N2,2.49939554904e-19
Cs17H500Pb100C100I200Br100N2083,2.6756349787799997e-19
Cs1H50Pb10C10I27Br3N209,2.3712214183199996e-19
H192Pb5C21I15N7,2.5634826144e-19
Cs13H500Pb100C100I261Br39N2087,2.49939554904e-19
H381Pb10C20I29Br1N219,2.69165674512e-19
H60Pb10C10I27Br3N10,2.5634826144e-19
Sn6H60Pb4C10I15Br15N10,2.03476432518e-19
Sn1H6C1I3N1,2.01874255884e-19
Cs17Sn1H500Pb99C100I300N2083,2.43530848368e-19
H381Pb10C20I29Br1N219,2.54746084806e-19
Cs17H500Pb100C100I150Br150N2083,2.7877873431599997e-19
Cs20H15257Pb400C800I1020Br180N8723,2.62756967976e-19
Cs5H3816Pb100C200I250Br50N2179,2.496191195772e-19
H3817Pb100C200I250Br50N2183,2.5634826144e-19
Sn1H12Pb1C2I6N2,1.89056842812e-19
Cs17Rb3Pb20Br60,3.5888756601600003e-19
H30Pb5C5I12Br3N5,2.69165674512e-19
H381Pb10C20I30N219,2.45133025002e-19
Cs3H100Pb20C20I57Br3N417,2.4833737826999997e-19
Cs332H191340Pb5000C10000I4525Br475N108333,2.6115479134199995e-19
H5Pb1C1I3N2,2.4833737826999997e-19
Cs7H3815Pb100C200I255Br45N2178,2.57950438074e-19
K4H763Pb20C40I51Br11N433,2.54746084806e-19
Cs3H677Pb20C20I51Br9N20,2.65961321244e-19
Cs1Sn1I3,2.0027207925e-19
H500Pb100C100Br300N2033,3.6657801385919997e-19
Sn1H6C1N1Cl3,3.4446797630999997e-19
Cs5H3813Pb100C200I255Br45N2178,2.5634826144e-19
Ag1Bi1I4,2.98004853924e-19
Cs5H3814Pb100C200I255Br45N2181,2.54746084806e-19
Sn3H120Pb17C20I60N20,2.11487315688e-19
Cs1Pb1I2Br1,3.0457377812339997e-19
H6Pb1C1I2Br1N1,2.8678961748599997e-19
H80Pb5C6I16N2,2.6756349787799997e-19
H763Pb20C40I51Br9N437,2.4032649509999997e-19
H3810Pb100C200I297Br3N2190,2.533041258354e-19
Cs1Pb1I3,3.5888756601600003e-19
Cs1334H190332Pb5000C10000I4525Br475N108330,2.6435914460999996e-19
H6Pb1C1I3N1,2.558676084498e-19
H3817Pb100C200I300N2183,2.46735201636e-19
Sn4H153C8I12N87,2.13089492322e-19
H383Pb10C20I30N217,2.4080714809019996e-19
H500Pb100C100I300N2033,2.49939554904e-19
Cs5H3816Pb100C200I249Br51N2179,2.561880437766e-19
Cs100H76323Pb2000C4000I4980Br1020N43577,2.5154173153799998e-19
Cs1Sn1Br3,2.8038091095e-19
Cs15H3814Pb100C200I210Br90N2171,2.7237002777999996e-19
Sn1H6C1I3N1,2.03476432518e-19
H60Pb10C10I29Br1N10,2.6243653264919997e-19
Cs1Pb1Br3,3.6048974264999996e-19
Cs3H20Pb4C4I12N81,2.65961321244e-19
H600Pb100C100I159Br141N100,2.8694983514939995e-19
H1908Pb50C100I75Br25N1092,3.01209207192e-19
Cs17H500Pb100C100I150Br150N2083,2.98004853924e-19
Cs500H381441Pb10000C20000I27000Br3000N217885,2.4833737826999997e-19
Cs25Sn168H19080Pb332C1000I1240Br260N10895,2.2110037549199997e-19
Sn3H30Pb2C5I9Br6N5,2.01874255884e-19
H389Pb10C20I30N211,2.481771606066e-19
H5Pb1C1I3N2,2.4305019537779995e-19
Cs170Sn1H5000Pb999C1000I3000N20830,2.41928671734e-19
Cs23H3377Pb100C100I300N100,2.633978386296e-19
Cs2Sn15H763Pb5C40I50Br10N435,2.0668078578599998e-19
H50Pb4C7I13N3,3.0281138382599996e-19
H6Pb1C1I3N1,2.573095674204e-19
H192Pb5C10I15N108,2.422491070608e-19
Cs20Sn75H3814Pb25C200I250Br50N2166,2.0507860915199998e-19
H407Pb20C30I65N113,2.53143908172e-19
Cs6H3815Pb100C200I120Br180N2179,2.93198324022e-19
H347Pb10C12I30N11,2.4833737826999997e-19
Cs2Sn20H763C40I50Br10N435,2.30713435296e-19
H387Pb10C20I24Br6N213,2.7076785114599998e-19
H5Pb1C1I3N2,2.3391778856399996e-19
Cs20H15257Pb400C800I1020Br180N8723,2.597128323714e-19
H6Pb1C1I3N1,3.2524185670199997e-19
Sn3H24Pb1C4I12N4,1.8745466617799998e-19
H30Pb5C5I9Br6N5,2.7877873431599997e-19
H3817Pb100C200I250Br50N2183,2.54746084806e-19
H7660Pb200C400I181Br19N4340,2.6115479134199995e-19
Cs5Sn25H3816Pb75C200I250Br50N2179,2.14691668956e-19
H3883Pb100C200I250Br50N2117,2.6035370302499996e-19
H6Pb1C1I1Br2N1,2.85187440852e-19
Sn3H24Pb1C4I12N4,2.03476432518e-19
Cs332H190335Pb5000C10000I4525Br475N109336,2.6115479134199995e-19
H387Pb10C20I29Br3N213,2.53143908172e-19
Cs30H120Pb40C80I91Br39N20,3.0441356046e-19
Cs3H799Pb20C54I60N37,2.6756349787799997e-19
Cs1H763Pb20C40I51Br9N437,2.582708734008e-19
Cs3H100Pb20C20I18Br42N417,3.204353268e-19
Cs20Pb20I57Br3,2.7237002777999996e-19
H6Pb1C1I3N1,2.91596147388e-19
Cs1H339Pb10C10I30N10,2.5634826144e-19
Cs3H50Pb10C10I30N207,2.4401150135819996e-19
Cs3Sb2I9,3.204353268e-19
Cs25H500Pb100C100I249Br51N2075,2.6115479134199995e-19
H1544Pb40C80I119Br1N856,2.5634826144e-19
Cs20Pb17I60,3.0922009036199997e-19
Sn1H5C1I3N2,2.0828296242e-19
Cs567H16667Pb3333C3333I10000N69433,2.43530848368e-19
Cs1H339Pb10C10I30N10,2.566686967668e-19
H194Pb5C10I15N106,2.49939554904e-19
Sn1H6C1N1Cl3,3.6850062581999995e-19
Sn3H192C10I15N108,2.0027207925e-19
Cs2Sn15H678Pb5C20I60N20,2.01874255884e-19
Ag51Bi1000I3500,2.98004853924e-19
H389Pb10C20I30N211,2.50740643221e-19
H963Pb25C50I75N537,2.59552614708e-19
Cs1H100Pb20C20I60N419,2.4833737826999997e-19
H300Pb50C50I111Br39N50,2.7076785114599998e-19
Sn3H192Pb2C10I15N108,2.03476432518e-19
H600Pb100C100I267Br33N100,2.6435914460999996e-19
H763Pb20C40I17Br3N437,2.5634826144e-19
H11Pb1C2I1Br1N3,2.54746084806e-19
Sb2H36C1I9N1,3.6048974264999996e-19
H458Pb5C70I65N127,2.53143908172e-19
Cs3H100Pb20C20I57Br3N417,2.54746084806e-19
Sn1H24Pb3C4I12N4,2.1629384559e-19
H6Pb1C1Br3N1,3.78113685624e-19
Sb2H36C1I9N1,3.7651150899e-19
H1917Pb50C100I150N1083,2.456136779922e-19
Cs1H193Pb5C10I15N106,2.59552614708e-19
Cs5H3838Pb100C200I300N2157,2.46735201636e-19
H6Pb1C1Br3N1,3.6369409591799997e-19
H1000Pb200C200I181Br19N400,2.54746084806e-19
H600Pb100C100I291Br9N100,2.529836905086e-19
H71Pb4C7I13N2,2.77176557682e-19
Cs1H1526Pb40C80I102Br18N873,2.645193622734e-19
H77Pb4C5I13N2,2.53143908172e-19
Sn4H20C4I9Br3N8,2.6115479134199995e-19
Cs15H500Pb100C100I213Br87N2085,2.7557438104799996e-19
H300Pb50C50I143Br7N50,2.5490630246939996e-19
Cs100Pb100I291Br9,2.83585264218e-19
H3883Pb100C200I150Br150N2117,2.976844185972e-19
H763Pb20C40I51Br9N437,2.45133025002e-19
Cs17Sn70H500Pb30C100I300N2083,2.0027207925e-19
H6Pb1C1I3N1,2.57149349757e-19
Sn51H1200Pb140C200I600N200,1.98669902616e-19
Cs3Sn12H230Pb15C25I85N122,1.98669902616e-19
Sn1Sb19H60C10I90N10,3.204353268e-19
H6Pb1C1Br3N1,3.204353268e-19
H763Pb20C40I51Br9N437,2.46735201636e-19
H1381Pb40C46I120N43,2.4833737826999997e-19
Cs10H3809Pb100C200I290Br10N2181,2.4833737826999997e-19
Sn5H30C5I12Br3N5,2.17896022224e-19
Sn1H6C1N1Cl3,3.5247885948e-19
Cs47Na3Pb50Br150,3.6369409591799997e-19
H60Pb10C10I21Br9N10,2.8038091095e-19
Cs1Pb1I1Br3,3.0601573709399997e-19
Sn4H155C8I12N85,2.0828296242e-19
H43Pb3C7I10N3,3.0761791372799995e-19
Cs20H15257Pb400C800I1020Br180N8723,2.590719617178e-19
H500Pb100C100I150Br150N2033,2.97203765607e-19
Sn1H77Pb1C4I6N43,2.13089492322e-19
Sn3H30Pb2C5I15Br5N5,1.8585248954399998e-19
H4775Pb125C250I93Br32N2725,2.7557438104799996e-19
Sn1H20Pb3C4I12N8,2.09885139054e-19
Cs2H763Pb20C40I50Br10N435,2.54746084806e-19
H763Pb20C40I51Br9N437,2.77176557682e-19
Cs7H500Pb100C100I300N2093,2.45133025002e-19
Cu1Sn3H120Pb16C20I58Br2N20,2.2270255212599995e-19
Cs1H25Pb5C5I15N104,2.42729760051e-19
Cs17H500Pb100C100I180Br120N2083,2.807013462768e-19
H6Pb1C1I2Br1N1,2.76375469365e-19
Cs5H3814Pb100C200I255Br45N2181,2.53944996489e-19
Sn1H12Pb1C2I6N2,2.0828296242e-19
Cs5H100Pb20C20I42Br18N415,2.77176557682e-19
Sn5H48Pb3C8I24N8,1.9226119607999997e-19
Cs1H50Pb10C10I27Br3N209,2.59552614708e-19
Cs10Ge1Pb9I20Br10,3.03612472143e-19
H120Pb20C20I59Br1N20,2.5154173153799998e-19
Sn1H6C1N1Cl3,4.3258769118e-19
H155Pb4C8I12N85,2.46735201636e-19
H1917Pb50C100I129Br21N1083,2.59552614708e-19
H600Pb100C100I233Br66N100,2.53143908172e-19
H6Pb1C1I2Br1N1,2.8438635253499995e-19
Sn1H60Pb9C10I30N10,2.4032649509999997e-19
Cs3H762Pb20C40I58Br2N435,2.5154173153799998e-19
Sn1H24Pb3C4I12N4,2.01874255884e-19
H300Pb50C50I87Br58N50,3.0441356046e-19
Sn6H384Pb4C20I27Br3N216,2.13089492322e-19
Cs19H1954Pb800C240I2074Br366N8747F240,2.725302454434e-19
Cs1H764Pb20C40I60N435,2.43530848368e-19
Cs1Pb1I1Br2,3.01209207192e-19
Sb2H36C1I9N1,3.9093109869599996e-19
Cs3H167Pb5C5I15N5,2.69165674512e-19
Cs10Sn50H1907C100I125Br25N1083,2.27509082028e-19
Cs47Li3Pb50Br150,3.6048974264999996e-19
Sn4H153C8I12N87,2.17896022224e-19
Cs7H3814Pb100C200I255Br45N2179,2.5634826144e-19
Sn1H40Pb7C8I24N16,2.13089492322e-19
Cs99Rb1Pb100I200Br100,3.0441356046e-19
Cs6H7720Pb200C400I595Br5N4274,2.5634826144e-19
H47Pb2C5I7N2,3.33252739872e-19
Cs1Pb1I2Br1,3.1082226699599995e-19
Cs1Pb1I2Br1,2.9640267729e-19
Cs5H3816Pb100C200I249Br51N2179,2.62756967976e-19
H6Pb1C1Br3N1,3.8131803889199994e-19
H153Pb4C8I12N87,2.45133025002e-19
Cs8H3837Pb100C200I300N2155,2.45133025002e-19
H3427Pb100C112I300N103Cl6,2.5634826144e-19
Cs1Pb1I3,2.8038091095e-19
H35Pb1C3S2I2N3,3.3645709313999997e-19
H17Pb4C9I13N25,2.45133025002e-19
H3817Pb100C200I249Br51N2183,3.89328922062e-19
H1243Pb40C360I119Br21N477,2.54746084806e-19
Sn3H30Pb2C5I12Br3N5,1.98669902616e-19
Cs9H3391Pb100C100I300N100,2.54746084806e-19
Cs100H76323Pb2000C4000I5400Br600N43577,2.4833737826999997e-19
H381Pb10C20I27Br3N219,2.8839179412e-19
Cs1Sn10H769Pb10C40I60N430,1.9546554934799998e-19
H20Pb4C4Br9N8Cl3,3.82920215526e-19
H6Pb1C1I3N1,2.528234728452e-19
Sn3H192Pb5C10I2N108,2.0027207925e-19
Cs20H7627Pb200C400I510Br90N4353,2.5811065573739997e-19
H3817Pb100C200I300N2183,2.45133025002e-19
H77Pb4C5I13N2,2.59552614708e-19
H44Pb4C7I13N3,2.99607030558e-19
H386Pb10C20I29Br1N214,2.41928671734e-19
Cs12H3805Pb100C200I180Br120N2183,2.7877873431599997e-19
Cs2H168Pb5C5I15N5,2.59552614708e-19
H500Pb100C100Br243N200Cl57,3.78113685624e-19
Cs5H3816Pb100C200I150Br150N2179,2.9640267729e-19
Sn1H77Pb1C4I6N43,1.98669902616e-19
Sn3H50Pb7C10I30N20,2.13089492322e-19
Cs25Pb25I3Br25F47,2.9640267729e-19
H30Pb5C5I14Br1N5,2.6115479134199995e-19
Cs3H20Pb4C4I12N81,2.73972204414e-19
H12Pb2C2I1Br5N2,3.4623037060739997e-19