formula,bandgap
Cs1H20Pb4C4I12N83,2.53143908172e-19
Cs5H25Pb5C5I14Br1N10,2.6435914460999996e-19
Sn15H960Pb10C50I69Br6N540,2.0507860915199998e-19
Cs49Li1Pb50Br150,3.6689844918599997e-19
Cs1H679Pb20C20I36Br24N20,2.91596147388e-19
H6Pb1C1I1Br2N1,3.247612037118e-19
Cs3H100Pb20C20I51Br9N417,2.3712214183199996e-19
Cs3H100Pb20C20I54Br6N417,2.5154173153799998e-19
Cs100Ba3Pb97Br300,3.6369409591799997e-19
Cs1H50Pb10C10I27Br3N209,2.4833737826999997e-19
Cs10Sn7Pb3I30,2.0668078578599998e-19
Cs23Li2Pb25Br75,3.5888756601600003e-19
Cu1H35C1Br2N1Cl2,3.39661446408e-19
Cs17Sn5H500Pb95C100I300N2083,2.3231561193e-19
H12Pb2C2I5Br1N2,2.696463275022e-19
Fe1H60Pb9C10I30N10,2.57950438074e-19
Cs4K1Pb5Br15,3.6689844918599997e-19
H691Pb20C28I36Br24N21,2.91596147388e-19
Cs5Sn5I12Br3,2.2430472876e-19
Sn1H6C1I2Br1N1,2.38724318466e-19
Cs10Ba3Pb7I20Br10,2.946402829926e-19
Sn1H77Pb1C4I6N43,2.2110037549199997e-19
Cs1H169Pb5C5I15N5,2.59552614708e-19
Cs166H95166Pb2500C5000I1860Br640N54667,2.7237002777999996e-19
Sn1Sb1H6C1I9N1,2.4032649509999997e-19
Sn1H12Pb1C2I6N2,1.8745466617799998e-19
H5Pb1C1I3N2,2.449728073386e-19
Cs7H24Pb8C16I25N2,2.81983087584e-19
Cs2Sn15H678Pb5C20I60N20,2.0507860915199998e-19
H3833Pb100C200Br300N2167,3.6529627255199995e-19
Sn5H120Pb15C20I12Br48N20,3.0441356046e-19
Sn1H30Pb4C5I13Br2N5,2.01874255884e-19
H5Pb1C1I2Br1N2,3.6337366059119996e-19
H6Pb1C1I3N1,2.582708734008e-19
H64Pb1C1I4N32,4.03748511768e-19
H600Pb100C100I123Br177N100,3.1402662026399996e-19
Sn3H20Pb1C4I12N8,2.5154173153799998e-19
H12Pb2C2I3Br3N2,3.0441356046e-19
H761Pb20C40I57Br3N439,2.4833737826999997e-19
H3833Pb100C200I150Br150N2167,2.960822419632e-19
Sn16Ge4H765C40I60N435,2.45133025002e-19
Cs5H25Pb5C5I14Br1N10,2.7557438104799996e-19
H6Pb1C1I3N1,2.525030375184e-19
Cs1Sn10H339C10I30N10,2.2590690539399996e-19