formula,bandgap
H6Pb1C1I3N1,2.5634826144e-19
H6Pb1C1I3N1,2.53143908172e-19
H6Pb1C1I3N1,2.54746084806e-19
H3817Pb100C200I297Br3N2183,2.5634826144e-19
Sn5H120Pb15C20I36Br24N20,2.54746084806e-19
Cs5H100Pb20C20I48Br12N415,2.7557438104799996e-19
H763Pb20C40I51Br9N437,2.5634826144e-19
Cs7H3816Pb100C200I250Br50N2177,2.625967503126e-19
Sn1H10Pb1C2I6N4,2.0828296242e-19
H6Pb1C1I3N1,2.6435914460999996e-19
Cs1Sn5H339Pb5C10I30N10,2.0507860915199998e-19
H5Pb1C1I3N2,2.3712214183199996e-19
Cs17Sn20H500Pb80C100I300N2083,2.14691668956e-19
H191Pb5C10I14Br1N109,2.45133025002e-19
H6Pb1C1I3N1,2.5154173153799998e-19
H6Pb1C1I3N1,2.49939554904e-19
Cs5H3816Pb100C200I249Br51N2179,2.59552614708e-19
Cs1Pb1I1Br2,3.2844620996999993e-19
H193Pb5C10I15N107,2.4833737826999997e-19
Sn1H5C1I3N2,2.17896022224e-19
Sn1H77Pb1C4I6N43,2.0027207925e-19
H381Pb10C20I29Br1N219,2.5154173153799998e-19
Sn100H3995C280I276Br24N2125,2.2110037549199997e-19
Cs20H15257Pb400C800I1020Br180N8723,2.5634826144e-19
H150Pb25C25I12Br63N25,3.451088469636e-19
Cs100H76323Pb2000C4000I4980Br1020N43577,2.5634826144e-19
Sn1H6C1I3N1,2.0027207925e-19
Cs9Sn36H920Pb48C100I280N471,1.98669902616e-19
H5Pb1C1I3N2,2.4032649509999997e-19
H3817Pb100C200I259Br51N2183,2.5634826144e-19
Sn2H77C4I6N43,2.2110037549199997e-19
H763Pb20C40I51Br9N437,2.35519965198e-19
Cs8H32300Pb100C200I249Br51N2176,2.59552614708e-19
Cs1Pb1Br3,3.7170497908799996e-19
Sn3H192Pb3C10I15N108,2.0027207925e-19
Cs1Pb1I1Br2,3.3165056323799993e-19
Cs10H3814Pb100C200I255Br55N2176,2.57950438074e-19
H3816Pb100C200I249Br51N2184,2.62756967976e-19
Cs3Sb2I9,3.2844620996999993e-19
H15Pb1C6I4N1,3.2844620996999993e-19
H763Pb20C40I51Br9N437,2.6435914460999996e-19
H763Pb20C40I51Br9N437,2.4833737826999997e-19
H763Pb20C40I51Br9N437,2.59552614708e-19
H120Pb20C20I59Br1N20,2.5634826144e-19
H6Pb1C1I3N1,2.59552614708e-19
Sn1H5C1Br3N2,2.5634826144e-19
Cs1Pb1I2Br1,3.0441356046e-19
H24Pb4C4I3Br9N4,2.6756349787799997e-19
Cs1H40Pb8C8I21Br3N167,2.5154173153799998e-19
Sn3H192Pb2C10I15N108,2.0027207925e-19
H6Pb1C1I3N1,2.5458586714259996e-19
H6Pb1C1I3N1,2.45133025002e-19
H6Pb1C1I3N1,2.57950438074e-19
H6Pb1C1I3N1,2.6115479134199995e-19
Cs5H3816Pb100C200I250Br50N2179,2.4032649509999997e-19
Cs5H3819Pb100C200I240Br60N2176,2.54746084806e-19
H381Pb10C20I27Br3N219,2.4032649509999997e-19
H193Pb5C10I14Br1N107,2.4032649509999997e-19
H5Pb1C1I3N2,2.43530848368e-19
H30Pb5C5I12Br3N5,2.6756349787799997e-19
H6Pb1C1I3N1,2.4032649509999997e-19
H6Pb1C1I3N1,2.4833737826999997e-19
H5Pb1C1I3N2,2.41928671734e-19
H60Pb10C10I27Br3N10,2.62756967976e-19
Cs1Pb1I2Br1,3.0761791372799995e-19
H6Pb1C1I3N1,2.43530848368e-19
H6Pb1C1I3N1,2.536245611622e-19
H70Pb3C7I10N2,3.1402662026399996e-19
Cs1H100Pb20C20I60N419,2.46735201636e-19
Cs5H3812Pb100C200I261Br39N2183,2.5634826144e-19
Cs22H125Pb25C25I75N503,2.41928671734e-19
Sn1H6C1I1Br2N1,2.83585264218e-19
Cs10Sn1Pb9I10Br20,2.8678961748599997e-19
Cs5H3816Pb100C200I251Br49N2176,2.5634826144e-19
Sn2H12C2I3Br3N2,2.6756349787799997e-19
H24Pb4C4I300Br5N4,2.81983087584e-19
Cs1Sn1I3,2.0828296242e-19
H6Pb1C1I3N1,2.553869554596e-19
Cs17H500Pb100C100I280Br120N2083,2.8038091095e-19
Cs5H3816Pb100C200I250Br50N2179,2.6115479134199995e-19
H59Pb3C17I10N3,3.3645709313999997e-19
Cs1Pb1I3,2.77176557682e-19
Cs5H3816Pb100C200I249Br51N2179,2.57950438074e-19
H5Pb1C1I3N2,2.2430472876e-19
Cs1Pb1I1Br2,3.26844033336e-19
H46Pb3C5I10N23,2.41928671734e-19
H3817Pb100C200I253Br47N2183,2.57950438074e-19
Sn5H30C5I13N5F2,2.9640267729e-19
Cs1Pb1I2Br1,3.0601573709399997e-19
Cs14H7623Pb200C400I510Br90N4357,2.5154173153799998e-19
Cs1H100Pb20C20I60N419,2.3712214183199996e-19
H6Pb1C1I3N1,2.41928671734e-19
Cs667H95166Pb2500C5000I1860Br640N54165,2.73972204414e-19
Cs1Pb1I1Br2,3.3645709313999997e-19
H3817Pb100C200I249Br51N2183,2.59552614708e-19
Cs1Pb1Br3,3.82920215526e-19
H6Pb1C1I3N1,2.5522673779619997e-19
H47Pb7C5I22N1,2.7237002777999996e-19
H5Pb1C1I3N2,2.53143908172e-19
H77Pb4C5I13N2,2.6115479134199995e-19
Cs8H1902Pb50C100I75Br75N1090,2.91596147388e-19
Cs60H7620Pb200C400I181Br19N4320,2.6435914460999996e-19
H79Pb2C10I6N3,2.5634826144e-19
Cu1H6C6I1N1Cl2,3.2203750343399996e-19
H5Pb1C1I3N2,2.3231561193e-19
Cs5H100Pb20C20I48Br12N415,2.69165674512e-19
H77Pb4C5I13N2,3.0281138382599996e-19
H6Pb1C1Br3N1,3.6529627255199995e-19
H763Pb20C40I51Br9N437,2.6115479134199995e-19
Cs17H500Pb100C100I240Br60N2083,2.57950438074e-19
Cs1Pb1I3,2.69165674512e-19
Cs5H3816Pb100C200I252Br48N2179,2.53143908172e-19
Cs100Pb100I269Br31,2.8038091095e-19
Ag3Bi2I9,2.98004853924e-19
H77Pb4C5I13N2,2.5634826144e-19
H6Pb1C1I3N1,2.53944996489e-19
Cs1Pb1I3,2.7237002777999996e-19
H6Pb1C1I3N1,2.557073907864e-19
H3817Pb100C200I254Br46N2183,2.5154173153799998e-19
H77Pb2C4I1Br5N43,3.4302601733939997e-19
Cs91Na9Pb100Br300,3.6048974264999996e-19
H763Pb20C40I50Br10N437,2.6067413835179997e-19
H7640Pb200C400I181Br19N4360,2.57950438074e-19
H779Pb20C40I60N421,2.4032649509999997e-19
Cs17Sn30H500Pb70C100I300N2083,2.13089492322e-19
H763Pb20C40I51Br9N437,2.6756349787799997e-19
Cs1Pb1I3,2.4032649509999997e-19
Sn1Sb9H30C5I45N5,3.1242444363e-19
H6Pb1C1I3N1,2.601934853616e-19
Cs1H100Pb20C20I57Br3N419,2.4833737826999997e-19
H3817Pb100C200I261Br39N2183,2.5634826144e-19
Cs4H1907Pb50C100I119Br21N1089,2.57950438074e-19
H763Pb20C40I60N437,2.4833737826999997e-19
Cs5H3816Pb100C200I249Br51N2179,2.4032649509999997e-19
H1699Pb50C50I150N50,2.54746084806e-19
H60Pb10C10I27Br3N10,2.4032649509999997e-19
H25Pb5C5I12Br3N10,2.5154173153799998e-19
H763Pb20C40I51Br9N437,2.54746084806e-19
H3817Pb100C200I249Br51N2183,2.6435914460999996e-19
H193Pb5C10I15N107,2.46735201636e-19
Cs5H3816Pb100C200I250Br50N2179,2.5154173153799998e-19
H381Pb10C20I30N219,2.43530848368e-19
H6Pb1C1I3N1,2.6035370302499996e-19
H120Pb20C20I57Br3N20,2.45133025002e-19
Cs4H1907Pb50C100I129Br21N1089,2.57950438074e-19
Cs100Ca3Pb97Br300,3.6369409591799997e-19
H60Pb10C10I27Br3N10,2.53143908172e-19
Cs5H3816Pb100C200I249Br51N2179,2.53143908172e-19
H77Pb2C4I6N43,2.5634826144e-19
Cs5H3816Pb100C200I249Br51N2179,2.6115479134199995e-19
Cs1Pb1Br3,3.73307155722e-19
H6Pb1C1I3N1,2.5779022041059996e-19
H6Pb1C1I3N1,2.542654318158e-19
Cs7H3820Pb100C200I253Br47N2173,2.5634826144e-19
Cs1H762Pb20C40I49Br9N437,2.54746084806e-19
Bi3H5C1I10N2,2.8999397075399998e-19
H1949Pb50C100I150N1051,2.41928671734e-19
H153Pb4C8I9Br3N87,2.57950438074e-19
Cs10H1907Pb50C100I125Br25N1083,2.5634826144e-19
H10Pb2C2I3Br3N4,3.0601573709399997e-19
H76Pb3C5I10N2,2.65160232927e-19
H6Pb1C1Br3N1,3.6978236712719993e-19
H45Pb5C5I16N1,2.8839179412e-19
H77Pb4C5I13N2,2.62756967976e-19
Cs3H100Pb20C20I42Br18N417,2.7557438104799996e-19
H6Pb1C1Br3N1,3.5247885948e-19
Cs100H250Pb50C50I129Br21N1040,2.54746084806e-19
Cs5H3816Pb100C200I249Br51N2179,2.5154173153799998e-19
Cs2H12Pb3C8I7Br3N2,3.0601573709399997e-19
Sn1H77Pb1C4I6N43,1.9226119607999997e-19
H6Pb1C1Br3N1,3.6850062581999995e-19
Cs1Pb1Br3,3.8452239215999995e-19
H6Pb1C1I3N1,2.6179566199559996e-19
Cs5Sn2Pb3I15,2.2110037549199997e-19
Cs1H25Pb5C5I15N104,2.54746084806e-19
Cs20Sn25H3814Pb75C200I250Br50N2166,2.2110037549199997e-19
Rb1Pb1I3,3.1723097353199997e-19
Cs1Pb1I3,2.73972204414e-19
H3817Pb100C200I249Br51N2183,2.6115479134199995e-19
H5Pb1C1I1Br3N2,2.5634826144e-19
Cs5H3812Pb100C200I264Br36N2183,2.57950438074e-19
H30Pb5C5I12Br3N5,2.682043685316e-19
Cs1Pb1I3,2.7557438104799996e-19
H387Pb10C20I30N213,2.53143908172e-19
H5Pb1C1I3N2,2.5154173153799998e-19
H3817Pb100C200I249Br51N2183,2.5154173153799998e-19
Cs5H3816Pb100C200I249Br251N2179,2.6115479134199995e-19
H952Pb25C50I75N548,2.4833737826999997e-19
Cs166H95667Pb2500C5000I1860Br640N54165,2.73972204414e-19
Cs1Pb1I2Br1,3.0537486644039996e-19
K18Ba2Nb19Ni1O60,2.3231561193e-19
Sn1H24Pb3C4I12N4,1.98669902616e-19
H77Pb4C5I13N2,2.65961321244e-19
Cs6H3816Pb100C200I249Br51N2178,2.6115479134199995e-19
Sb3H600Pb97C100I9Br294N100,2.54746084806e-19
H386Pb10C20I29Br1N214,2.49939554904e-19
H5Pb1C1I3N2,2.35519965198e-19
H383Pb10C20I29Br1N217,2.53143908172e-19
H387Pb10C20I30N213,2.5154173153799998e-19
Cs5H3816Pb100C200I261Br39N2179,2.54746084806e-19
H30Pb5C5I13Br2N5,2.6435914460999996e-19
H19487Pb500C1000I1500N10513,2.4288997771439997e-19
H77Pb2C4I6N43,2.46735201636e-19
Cs1Pb1Br3,3.5888756601600003e-19
H60Pb4C17I13N3,2.6115479134199995e-19
Cs5H3814Pb100C200I255Br45N2181,2.6115479134199995e-19
H17Pb3C9I10N24,3.8772674542799995e-19
Cs79H3810Pb100C200I200Br100N2116,2.77176557682e-19
H953Pb25C50I75N547,2.45133025002e-19
H387Pb10C20I30N213,2.59552614708e-19
Cs5H3814Pb100C200I261Br39N2181,2.54746084806e-19
H24Pb1C9I5O3,3.7651150899e-19
H387Pb10C20I27Br3N213,2.54746084806e-19
Cs6Sn25H200Pb15C40I120N834,1.98669902616e-19
Sn1H24Pb3C4Br12N4,3.2524185670199997e-19
Cs2H50Pb10C10I15Br15N208,2.91596147388e-19
Cs80H1000Pb200C200I181Br19N4120,2.57950438074e-19
H6Pb1C1I3N1,2.65961321244e-19
H5Pb1C1Br3N2,3.6529627255199995e-19
H383Pb10C20I30N217,2.5634826144e-19
Cs5H3816Pb100C200I260Br120N2179,2.73972204414e-19
H300Pb50C50I87Br63N50,2.8678961748599997e-19
Sb2H36C1I9N1,3.26844033336e-19
Cs1Pb1I2Br1,3.01209207192e-19
Cs1Pb1I2Br1,3.0281138382599996e-19
Cs15H8128Pb400C600I1300N2257,2.54746084806e-19
Cs5H3816Pb100C200I300N2179,2.57950438074e-19
H6Pb1C1I3N1,2.7237002777999996e-19
Cs40H7640Pb200C400I181Br19N4320,2.62756967976e-19
Cs3Sb2I9,3.95737628598e-19
Sn3H24Pb1C4I12N4,2.0027207925e-19
Cs1H388Pb10C20I30N211,2.4032649509999997e-19
H77Pb2C4I2Br4N43,3.135459672738e-19
H600Pb100C100I291Br9N100,2.57950438074e-19
Sn5H60Pb5C10I18Br12N10,2.3712214183199996e-19
H763Pb20C40I17Br3N437,2.6115479134199995e-19
Sn1H24Pb3C4I4N4,1.98669902616e-19
Sn3H48Pb5C8I24N8,2.0027207925e-19
H6Pb1C1I2Br1N1,2.83585264218e-19
Cs1H339Pb10C10I20Br10N10,2.83585264218e-19
H763Pb20C40I51Br9N437,2.5154173153799998e-19
Cs7H500Pb100C100I285Br15N2093,2.59552614708e-19
H6Pb1C1I3N1,2.46735201636e-19
Sn5H120Pb15C20I48Br12N20,2.3712214183199996e-19
H17Pb3C9I10N24,2.45133025002e-19
Cs50H3810Pb100C200I249Br51N2140,2.7237002777999996e-19
H3815Pb100C200I279Br21N2185,2.49939554904e-19
Cs1H763Pb20C40I51Br9N436,2.5634826144e-19
H10Pb2C2I1Br5N4,3.3725818145699996e-19
H76Pb3C5I10N2,3.1402662026399996e-19
H381Pb10C20I30N219,2.46735201636e-19
H12Pb1C7I4N2,3.97339805232e-19
H761Pb20C40I57Br3N439,2.41928671734e-19
Sn33H3866Pb66C200I300N2133,2.0828296242e-19
Cs5H3816Pb100C200I249Br51N2179,2.54746084806e-19
H6Pb1C1Br3N1,3.70102802454e-19
Cs30H1537Pb80C100I260N40,2.6115479134199995e-19
Cu1H6C6I1Br2N1,2.6435914460999996e-19
Cs5H3816Pb100C200I249Br51N2179,2.5634826144e-19
H600Pb100C100I213Br87N100,2.73972204414e-19
H61Pb5C17I16N3,2.6435914460999996e-19
Sn1H20C4I12N83,2.2430472876e-19
Cs5H3816Pb100C200I270Br31N2179,2.54746084806e-19
Cs5H3817Pb100C200I249Br51N2183,2.5634826144e-19
H5Pb1C1I3N2,2.444921543484e-19
Cs17H500Pb100C100I249Br51N2083,2.5634826144e-19
H220Pb20C40I51Br9N60,2.6435914460999996e-19
Cs4H3816Pb100C200I249Br51N2180,2.57950438074e-19
Cs9H3833Pb100C200I235Br65N2158,2.54746084806e-19
H192Pb5C10I13Br2N108,2.53143908172e-19
Sn3H30Pb2C5I15N5,2.03476432518e-19
Cs2Sn5H763Pb15C40I50Br10N435,2.17896022224e-19
H389Pb10C20I30N211,2.53143908172e-19
Cs10Pb10I3Br27,3.7170497908799996e-19
H30Pb5C5I9Br6N5,2.93198324022e-19
Cs10H3815Pb100C200I249Br51N2175,2.6115479134199995e-19
H61Pb5C17I16N3,2.62756967976e-19
Cs1Pb1Br3,3.6209191928399994e-19
H389Pb10C20I3Br27N211,3.42865799676e-19
Cs1Pb1I2Br1,3.1242444363e-19
Sb2H36C1I9N1,3.4767232957799997e-19
H387Pb10C20I30N213,2.5634826144e-19
Cs10H500Pb100C100I291Br9N2090,2.46735201636e-19
Cs6H3815Pb100C200I255Br45N2179,2.54746084806e-19
H389Pb10C20I30N211,2.4833737826999997e-19
H777Pb20C40I9Br51N423,2.45133025002e-19
Cs5H3816Pb100C200I255Br45N2179,2.57950438074e-19
Cs5H3816Pb100C200I249Br51N2179,2.6756349787799997e-19
H14Pb1C5I3N1,3.7170497908799996e-19
H11Pb1C5I4N3,4.06952865036e-19
H60Pb10C10I10Br9N10,2.7557438104799996e-19
Cs3Bi2I9,3.204353268e-19
Cs5H3814Pb100C200I255Br45N2181,2.4032649509999997e-19
Cs2Sn1I6,2.3712214183199996e-19
Cs17H500Pb100C100I83Br17N2083,2.5634826144e-19
H6Pb1C1Br3N1,3.7490933235599997e-19
H1910Pb50C100I50Br11N1090,2.45133025002e-19
Cs1H25Pb5C5I9Br6N104,2.91596147388e-19
Cs1Pb2Br5,4.1336157157199997e-19
H12Pb2C2I3Br3N2,2.999274658848e-19
H11Pb1C2I3N3,2.476965076164e-19
H77Pb4C5I13N2,2.49939554904e-19
Cs5H3816Pb100C200I255Br45N2179,2.5634826144e-19
H43Pb2C5I10N1,3.1242444363e-19
H3803Pb100C200I291Br9N2193,2.4833737826999997e-19
Cs24Sn72H920Pb96C100I560N573,1.9706772598199998e-19
Cs1Pb1I1Br2,3.2203750343399996e-19
Sn51H1200Pb140C200I600N200,2.01874255884e-19
Cs1H10Pb2C2I6N41,2.6115479134199995e-19
Cs1Pb1I2Br1,3.2844620996999993e-19
H6Pb1C1I3N1,2.380834478124e-19
H60Pb10C10I29Br3N10,2.5458586714259996e-19
H3833Pb100C200I250Br50N2167,2.6243653264919997e-19
Cs13H500Pb100C100I200Br100N2087,2.7557438104799996e-19
H77Pb4C5I13N2,2.616354443322e-19
H77Pb2C4I3Br3N43,2.91596147388e-19
Cs3Sn3H50Pb7C10I30N207,2.0828296242e-19
Cs5H32200Pb100C200I45Br255N2181,2.54746084806e-19
H381Pb10C20I29Br1N219,2.49939554904e-19
H3817Pb100C200I50Br250N2183,3.385399227642e-19
H779Pb20C40I60N421,2.43530848368e-19
Sn1H24Pb3C4I12N4,2.09885139054e-19
H11Pb1C2I1Br1N3,3.1242444363e-19
H3883Pb100C200I300N2117,2.544256494792e-19
Cs2H763Pb20C40I51Br11N435,2.6115479134199995e-19
Sn4H25Pb1C5I15N10,2.0668078578599998e-19
Cs1Pb1Br3,3.6850062581999995e-19
H763Pb20C40I60N437,2.49939554904e-19
Cs1Sn20H1540Pb20C80I120N859,2.03476432518e-19
H387Pb10C20I30N213,2.49939554904e-19
H5Pb1C1Br3N2,3.6369409591799997e-19
H6Pb1C1I3N1,2.35519965198e-19
H35Pb1C1I4N1,2.49939554904e-19
Sn1H5C1I3N2,2.2430472876e-19
H11Pb1C2I1Br3N3,2.5634826144e-19
H6Pb1C1Br3N1,3.7170497908799996e-19
Cs1Pb1I1Br1,2.81983087584e-19
Cs5H3816Pb100C200I253Br47N2179,2.54746084806e-19
Cs17Sn30H500Pb70C100I300N2083,2.11487315688e-19
H240Pb40C40I117Br3N40,2.57950438074e-19
Cs1H762Pb20C40Br60N437,3.6529627255199995e-19
Sn1H24Pb3C4I12N4,2.0828296242e-19
H7680Pb200C400I181Br19N4320,2.62756967976e-19
Sn5H120Pb15C20I6Br54N20,3.18833150166e-19
H6Pb1C1I2Br1N1,2.5634826144e-19
Cs1Pb1I3,2.7877873431599997e-19
Cs5H3814Pb100C200I255Br45N2181,2.5634826144e-19
H763Pb20C40I51Br9N437,2.49939554904e-19
Cs5H3816Pb100C200I249Br51N2179,2.7237002777999996e-19
Cs1H25Pb5C5I15N104,2.4833737826999997e-19
H389Pb10C20I30N211,2.45133025002e-19
Sn3H30Pb2C5I13Br2N5,2.01874255884e-19
H387Pb10C20I30N213,2.4833737826999997e-19
H24Pb4C4I9Br3N4,2.77176557682e-19
Cs5H3816Pb100C200I270Br30N2179,2.4833737826999997e-19
Sn1H24Pb3C4I6Br6N4,2.6435914460999996e-19
H3817Pb100C200I248Br52N2183,2.62756967976e-19
H3817Pb100C200I100Br200N2183,3.1659010287839996e-19
H30Pb1C17I4N3,2.5634826144e-19
Cs5H3816Pb100C200I200Br100N2179,2.57950438074e-19
Cs1Pb1I3,2.7076785114599998e-19
H3817Pb100C200I249Br51N2183,2.62756967976e-19
Sn1H6C1I3N1,2.2430472876e-19
H763Pb20C40I50Br10N437,2.6435914460999996e-19
Cs17Sn2H500Pb98C100I300N2083,2.41928671734e-19
Cs5H3825Pb100C200I300N2107,2.41928671734e-19
Sn100H3995C280I276Br24N2125,2.11487315688e-19
H389Pb10C20I30N211,2.4945890191379996e-19
Cs3H100Pb20C20I60N417,2.43530848368e-19
Cs3H3816Pb100C200I250Br50N2181,2.6115479134199995e-19
H3817Pb100C200I249Br51N2183,2.5634826144e-19
H30Pb1C17I4N3,2.5154173153799998e-19
Cs5Sn100H3816C200I250Br50N2179,2.3231561193e-19
Cs5H3816Pb100C200I249Br51N2179,2.41928671734e-19
H763Pb20C40I51Br9N437,2.41928671734e-19
H6Pb1C1I3N1,2.8038091095e-19
Cs17H500Pb100C100I300N2083,2.49939554904e-19
Sn3H192Pb2C10I15N108,1.98669902616e-19
Cs1Pb1I2Br1,2.99607030558e-19
H12Pb1C8I2N1,3.6529627255199995e-19
Cs1H50Pb10C10I30N209,2.3712214183199996e-19
H30Pb5C5I12Br3N5,2.65961321244e-19
Cs2H1908Pb50C100I125Br25N1090,2.6147522666879996e-19
Cu1Sn2H120Pb17C20I58Br2N20,2.30713435296e-19
Cs1H100Pb20C20I60N419,2.45133025002e-19
Cs1Pb1I3,2.8839179412e-19
Sn1H60Pb9C10I30N10,2.09885139054e-19
H6Pb1C1Br3N1,3.6785975516639994e-19
H30Pb5C5I9Br6N5,2.83585264218e-19
Cs5H3816Pb100C200I255Br45N2179,2.7237002777999996e-19
H1367Pb40C42I120N41,2.4833737826999997e-19
Cs1Pb1I1Br1,2.8038091095e-19
Sn1H12Pb1C2I6N2,1.9546554934799998e-19
Cs7H500Pb100C100I300N2093,2.46735201636e-19
H6Pb1C1I3N1,2.6067413835179997e-19
Cs5H3816Pb100C200I249Br51N2179,2.5779022041059996e-19
Cs1H763Pb20C40I51Br9N436,2.6115479134199995e-19
Cs17Sn10H500Pb90C100I300N2083,2.2590690539399996e-19
H389Pb10C20I30N211,2.41928671734e-19
Sn1H5C1I3N2,2.2110037549199997e-19
H3833Pb100C200I100Br200N2167,3.154685792346e-19
Cs1H763Pb20C40I51Br11N436,2.57950438074e-19
Ag1Bi2I7,2.98004853924e-19
H150Pb25C25I61Br14N25,2.69165674512e-19
Cs5H3816Pb100C200I252Br48N2179,2.57950438074e-19
H6Pb1C1I3N1,2.3231561193e-19
Cs17H1000Pb200C200I510Br90N4183,2.6035370302499996e-19
Cs15H500Pb100C100I219Br81N2085,2.7557438104799996e-19
Cs6H7605Pb200C400I585Br15N4389,2.49939554904e-19
H765Pb20C40I51Br9N435,2.59552614708e-19
Cs2H763Pb20C40I50Br10N435,2.6115479134199995e-19
Cs4H100Pb20C20I39Br21N416,2.81983087584e-19
Cs50Pb50I11Br50F89,2.9640267729e-19
H4800Pb125C250I93Br32N2700,2.7557438104799996e-19
Cs1Sn1Br3,2.8839179412e-19
Cs5H3816Pb100C200I252Br48N2179,2.4833737826999997e-19
H24Pb1C16I4N2,4.1336157157199997e-19
H6Pb1C1I3N1,2.3712214183199996e-19
Cs1H100Pb20C20I60N419,2.57950438074e-19
Cs5H3812Pb100C200I249Br51N2183,2.6115479134199995e-19
H500Pb100C100I50Br250N2033,3.4270558201259996e-19
Cs172H5051Pb1010C1010I3030N21040,2.41928671734e-19
Cs100H76323Pb2000C4000I5031Br969N43577,2.5634826144e-19
Sn1H12Pb1C2I6N2,1.9386337271399998e-19
Cs172H5051Pb1010C1010I3030N21040,2.53143908172e-19
H6Pb1C1I3N1,2.600332676982e-19
Sn1H5C1I3N2,2.2270255212599995e-19
Cs5H3816Pb100C200I249Br51N2149,2.77176557682e-19
H59Pb4C17I15N3F2,4.005441585e-19
Cs17H1683Pb50C50I150N50,2.6467957993679997e-19
Sn1H6C1I1Br2N1,2.8038091095e-19
Cs20H1000Pb200C200I181Br19N4180,2.49939554904e-19
Cu2H70C2Br7N2Cl1,2.8839179412e-19
Sb2H150Pb23C25I75N25,2.6435914460999996e-19
H6Pb1C1I3N1,2.576300027472e-19
Cs5H3812Pb100C200I251Br49N2183,2.5634826144e-19
H30Pb5C5I13Br2N5,2.6756349787799997e-19
La1Y1S3,3.204353268e-19
Cs1H50Pb10C10I30N209,2.45133025002e-19
Cs24K1Pb25Br75,3.6689844918599997e-19
Sn1H155Pb3C8I12N85,2.13089492322e-19
Cs15H500Pb100C100I288Br12N2085,2.5634826144e-19
Cs20Pb20I51Br9,2.94800500656e-19
H5Pb1C1I3N2,2.45133025002e-19
H12Pb2C2I3Br3N2,2.7557438104799996e-19
Cs1Pb1Br3,3.78113685624e-19
Cs59H24Pb60C16I181N2,2.77176557682e-19
H60Pb10C10I29Br1N10,2.5634826144e-19
H3817Pb100C200I249Br51N2183,2.57950438074e-19
Cs1Pb1Br3,2.93198324022e-19
Cs9H24Pb10C16I34N2,2.77176557682e-19
H30Pb5C5I14Br1N5,2.59552614708e-19
H7919Pb100C600I333N3215,2.8999397075399998e-19
H18Pb1C9I3N2,2.5634826144e-19
Cs1Sn10H770Pb10C40I60N429,2.01874255884e-19
Cs100H76323Pb2000C4000I4980Br1020N43577,2.57950438074e-19
Sn3H120Pb17C20I60N20,2.41928671734e-19
H6Pb1C1I3N1,2.83585264218e-19
H60Pb10C10I21Br9N10,2.7237002777999996e-19
H6Pb1C1I3N1,2.0828296242e-19
Cs1Pb1I3,2.83585264218e-19
H41Pb1C4I4N1,3.7651150899e-19
H6Pb1C1Br3N1,3.6689844918599997e-19
Cs4Sn5H100Pb15C20I60N416,2.1629384559e-19
H75Pb1C6I3N2,2.4833737826999997e-19
Cs3H677Pb20C20I60N20,2.54746084806e-19
Cs5H25Pb5C5I14Br1N10,2.45133025002e-19
H389Pb10C20I30N211,2.5154173153799998e-19
Cs1Pb1I1Br2,3.0761791372799995e-19
Cs3Sn16H920Pb24C100I140N437,2.03476432518e-19
H191Pb5C10I12Br3N109,2.57950438074e-19
Cs3H100Pb20C20I60N417,2.489782489236e-19
Cs29H2014Pb1160C240I3094Br546N9077F240,2.685248038584e-19
H383Pb10C20I30N217,2.45133025002e-19
H600Pb100C100I219Br81N100,2.73972204414e-19
H191Pb5C10I12Br3N109,2.54746084806e-19
Cs34Sn1H1000Pb199C200I600N4166,2.46735201636e-19
H6Pb1C1I3N1,2.8839179412e-19
H60Pb10C10I21Br9N10,2.6435914460999996e-19
H81Pb4C33I13N5F4,2.5634826144e-19
H60Pb10C10I27Br3N10,2.5554717312299997e-19
Cs3H1537Pb80C100I260N40,2.6115479134199995e-19
Cs4H3816Pb100C200I251Br49N2180,2.59552614708e-19
H763Pb20C40I51Br9N437,2.53143908172e-19
H3818Pb100C200I247Br53N2182,2.62756967976e-19
Cs5H3816Pb110C200I249Br51N2179,2.54746084806e-19
H15Pb1C6I4N1,3.5247885948e-19
H381Pb10C20I29Br1N219,2.4833737826999997e-19
Sn4H77C5I13N2,2.4032649509999997e-19
Cs17H500Pb100C100I180Br120N2083,2.7557438104799996e-19
Cs2Sn5H338Pb5C10I30N10,2.0828296242e-19
Cs5H3816Pb100C200I249Br51N2179,2.5746978508379996e-19
Sn2H12C2I3Br3N2,2.5154173153799998e-19
Sn1H6C1I3N1,2.0828296242e-19
Cs100H76323Pb2000C4000I4980Br1020N43577,2.4833737826999997e-19
Cu1H6C6I1Br2N1,2.6115479134199995e-19